V -t * -v 1.0a5 -a 0
A -t * -n 1 -p 0 -o 0x7fffffff -c 30 -a 1
A -t * -h 1 -m 1073741823 -s 0
c -t * -i 1 -n Blue
c -t * -i 2 -n Red
c -t * -i 3 -n Yellow
n -t * -a 35 -s 35 -S UP -v circle -c black -i black
n -t * -a 17 -s 17 -S UP -v circle -c black -i black
n -t * -a 0 -s 0 -S UP -v circle -c black -i black
n -t * -a 36 -s 36 -S UP -v circle -c black -i black
n -t * -a 18 -s 18 -S UP -v circle -c black -i black
n -t * -a 1 -s 1 -S UP -v circle -c black -i black
n -t * -a 20 -s 20 -S UP -v circle -c black -i black
n -t * -a 19 -s 19 -S UP -v circle -c black -i black
n -t * -a 2 -s 2 -S UP -v circle -c black -i black
n -t * -a 21 -s 21 -S UP -v circle -c black -i black
n -t * -a 3 -s 3 -S UP -v circle -c black -i black
n -t * -a 22 -s 22 -S UP -v circle -c black -i black
n -t * -a 4 -s 4 -S UP -v circle -c black -i black
n -t * -a 23 -s 23 -S UP -v circle -c black -i black
n -t * -a 5 -s 5 -S UP -v circle -c black -i black
n -t * -a 24 -s 24 -S UP -v circle -c black -i black
n -t * -a 6 -s 6 -S UP -v circle -c black -i black
n -t * -a 25 -s 25 -S UP -v circle -c black -i black
n -t * -a 7 -s 7 -S UP -v circle -c black -i black
n -t * -a 26 -s 26 -S UP -v circle -c black -i black
n -t * -a 8 -s 8 -S UP -v circle -c black -i black
n -t * -a 27 -s 27 -S UP -v circle -c black -i black
n -t * -a 9 -s 9 -S UP -v circle -c black -i black
n -t * -a 10 -s 10 -S UP -v circle -c black -i black
n -t * -a 28 -s 28 -S UP -v circle -c black -i black
n -t * -a 11 -s 11 -S UP -v circle -c black -i black
n -t * -a 30 -s 30 -S UP -v circle -c black -i black
n -t * -a 29 -s 29 -S UP -v circle -c black -i black
n -t * -a 12 -s 12 -S UP -v circle -c black -i black
n -t * -a 31 -s 31 -S UP -v circle -c black -i black
n -t * -a 13 -s 13 -S UP -v circle -c black -i black
n -t * -a 32 -s 32 -S UP -v circle -c black -i black
n -t * -a 14 -s 14 -S UP -v circle -c black -i black
n -t * -a 33 -s 33 -S UP -v circle -c black -i black
n -t * -a 15 -s 15 -S UP -v circle -c black -i black
n -t * -a 34 -s 34 -S UP -v circle -c black -i black
n -t * -a 16 -s 16 -S UP -v circle -c black -i black
l -t * -s 0 -d 16 -S UP -r 100000000 -D 2.5000000000000001e-05 -c black
l -t * -s 1 -d 16 -S UP -r 100000000 -D 2.5000000000000001e-05 -c black
l -t * -s 2 -d 17 -S UP -r 100000000 -D 2.5000000000000001e-05 -c black
l -t * -s 3 -d 17 -S UP -r 100000000 -D 2.5000000000000001e-05 -c black
l -t * -s 4 -d 18 -S UP -r 100000000 -D 2.5000000000000001e-05 -c black
l -t * -s 5 -d 18 -S UP -r 100000000 -D 2.5000000000000001e-05 -c black
l -t * -s 6 -d 19 -S UP -r 100000000 -D 2.5000000000000001e-05 -c black
l -t * -s 7 -d 19 -S UP -r 100000000 -D 2.5000000000000001e-05 -c black
l -t * -s 8 -d 20 -S UP -r 100000000 -D 2.5000000000000001e-05 -c black
l -t * -s 9 -d 20 -S UP -r 100000000 -D 2.5000000000000001e-05 -c black
l -t * -s 10 -d 21 -S UP -r 100000000 -D 2.5000000000000001e-05 -c black
l -t * -s 11 -d 21 -S UP -r 100000000 -D 2.5000000000000001e-05 -c black
l -t * -s 12 -d 22 -S UP -r 100000000 -D 2.5000000000000001e-05 -c black
l -t * -s 13 -d 22 -S UP -r 100000000 -D 2.5000000000000001e-05 -c black
l -t * -s 14 -d 23 -S UP -r 100000000 -D 2.5000000000000001e-05 -c black
l -t * -s 15 -d 23 -S UP -r 100000000 -D 2.5000000000000001e-05 -c black
l -t * -s 16 -d 24 -S UP -r 100000000 -D 2.5000000000000001e-05 -c black
l -t * -s 16 -d 25 -S UP -r 100000000 -D 2.5000000000000001e-05 -c black
l -t * -s 17 -d 24 -S UP -r 100000000 -D 2.5000000000000001e-05 -c black
l -t * -s 17 -d 25 -S UP -r 100000000 -D 2.5000000000000001e-05 -c black
l -t * -s 18 -d 26 -S UP -r 100000000 -D 2.5000000000000001e-05 -c black
l -t * -s 18 -d 27 -S UP -r 100000000 -D 2.5000000000000001e-05 -c black
l -t * -s 19 -d 26 -S UP -r 100000000 -D 2.5000000000000001e-05 -c black
l -t * -s 19 -d 27 -S UP -r 100000000 -D 2.5000000000000001e-05 -c black
l -t * -s 20 -d 28 -S UP -r 100000000 -D 2.5000000000000001e-05 -c black
l -t * -s 20 -d 29 -S UP -r 100000000 -D 2.5000000000000001e-05 -c black
l -t * -s 21 -d 28 -S UP -r 100000000 -D 2.5000000000000001e-05 -c black
l -t * -s 21 -d 29 -S UP -r 100000000 -D 2.5000000000000001e-05 -c black
l -t * -s 22 -d 30 -S UP -r 100000000 -D 2.5000000000000001e-05 -c black
l -t * -s 22 -d 31 -S UP -r 100000000 -D 2.5000000000000001e-05 -c black
l -t * -s 23 -d 30 -S UP -r 100000000 -D 2.5000000000000001e-05 -c black
l -t * -s 23 -d 31 -S UP -r 100000000 -D 2.5000000000000001e-05 -c black
l -t * -s 24 -d 32 -S UP -r 100000000 -D 2.5000000000000001e-05 -c black
l -t * -s 24 -d 33 -S UP -r 100000000 -D 2.5000000000000001e-05 -c black
l -t * -s 25 -d 34 -S UP -r 100000000 -D 2.5000000000000001e-05 -c black
l -t * -s 25 -d 35 -S UP -r 100000000 -D 2.5000000000000001e-05 -c black
l -t * -s 26 -d 32 -S UP -r 100000000 -D 2.5000000000000001e-05 -c black
l -t * -s 26 -d 33 -S UP -r 100000000 -D 2.5000000000000001e-05 -c black
l -t * -s 27 -d 34 -S UP -r 100000000 -D 2.5000000000000001e-05 -c black
l -t * -s 27 -d 35 -S UP -r 100000000 -D 2.5000000000000001e-05 -c black
l -t * -s 28 -d 32 -S UP -r 100000000 -D 2.5000000000000001e-05 -c black
l -t * -s 28 -d 33 -S UP -r 100000000 -D 2.5000000000000001e-05 -c black
l -t * -s 29 -d 34 -S UP -r 100000000 -D 2.5000000000000001e-05 -c black
l -t * -s 29 -d 35 -S UP -r 100000000 -D 2.5000000000000001e-05 -c black
l -t * -s 30 -d 32 -S UP -r 100000000 -D 2.5000000000000001e-05 -c black
l -t * -s 30 -d 33 -S UP -r 100000000 -D 2.5000000000000001e-05 -c black
l -t * -s 31 -d 34 -S UP -r 100000000 -D 2.5000000000000001e-05 -c black
l -t * -s 31 -d 35 -S UP -r 100000000 -D 2.5000000000000001e-05 -c black
+ -t 0.000169788487334637 -s 0 -d 16 -p rtProtoDV -e 37 -c 0 -i 0 -a 0 -x {0.74 16.73 -1 ------- null}
- -t 0.000169788487334637 -s 0 -d 16 -p rtProtoDV -e 37 -c 0 -i 0 -a 0 -x {0.74 16.73 -1 ------- null}
h -t 0.000169788487334637 -s 0 -d 16 -p rtProtoDV -e 37 -c 0 -i 0 -a 0 -x {0.74 16.73 -1 ------- null}
r -t 0.000197748487334637 -s 0 -d 16 -p rtProtoDV -e 37 -c 0 -i 0 -a 0 -x {0.74 16.73 -1 ------- null}
+ -t 0.00710233021858257 -s 2 -d 17 -p rtProtoDV -e 37 -c 0 -i 1 -a 0 -x {2.73 17.73 -1 ------- null}
- -t 0.00710233021858257 -s 2 -d 17 -p rtProtoDV -e 37 -c 0 -i 1 -a 0 -x {2.73 17.73 -1 ------- null}
h -t 0.00710233021858257 -s 2 -d 17 -p rtProtoDV -e 37 -c 0 -i 1 -a 0 -x {2.73 17.73 -1 ------- null}
r -t 0.00713029021858257 -s 2 -d 17 -p rtProtoDV -e 37 -c 0 -i 1 -a 0 -x {2.73 17.73 -1 ------- null}
+ -t 0.0213972786541084 -s 13 -d 22 -p rtProtoDV -e 37 -c 0 -i 2 -a 0 -x {13.73 22.73 -1 ------- null}
- -t 0.0213972786541084 -s 13 -d 22 -p rtProtoDV -e 37 -c 0 -i 2 -a 0 -x {13.73 22.73 -1 ------- null}
h -t 0.0213972786541084 -s 13 -d 22 -p rtProtoDV -e 37 -c 0 -i 2 -a 0 -x {13.73 22.73 -1 ------- null}
r -t 0.0214252386541084 -s 13 -d 22 -p rtProtoDV -e 37 -c 0 -i 2 -a 0 -x {13.73 22.73 -1 ------- null}
+ -t 0.04406133552271 -s 3 -d 17 -p rtProtoDV -e 37 -c 0 -i 3 -a 0 -x {3.73 17.73 -1 ------- null}
- -t 0.04406133552271 -s 3 -d 17 -p rtProtoDV -e 37 -c 0 -i 3 -a 0 -x {3.73 17.73 -1 ------- null}
h -t 0.04406133552271 -s 3 -d 17 -p rtProtoDV -e 37 -c 0 -i 3 -a 0 -x {3.73 17.73 -1 ------- null}
r -t 0.04408929552271 -s 3 -d 17 -p rtProtoDV -e 37 -c 0 -i 3 -a 0 -x {3.73 17.73 -1 ------- null}
+ -t 0.0470694271135467 -s 19 -d 6 -p rtProtoDV -e 37 -c 0 -i 4 -a 0 -x {19.73 6.73 -1 ------- null}
- -t 0.0470694271135467 -s 19 -d 6 -p rtProtoDV -e 37 -c 0 -i 4 -a 0 -x {19.73 6.73 -1 ------- null}
h -t 0.0470694271135467 -s 19 -d 6 -p rtProtoDV -e 37 -c 0 -i 4 -a 0 -x {19.73 6.73 -1 ------- null}
+ -t 0.0470694271135467 -s 19 -d 7 -p rtProtoDV -e 37 -c 0 -i 5 -a 0 -x {19.73 7.74 -1 ------- null}
- -t 0.0470694271135467 -s 19 -d 7 -p rtProtoDV -e 37 -c 0 -i 5 -a 0 -x {19.73 7.74 -1 ------- null}
h -t 0.0470694271135467 -s 19 -d 7 -p rtProtoDV -e 37 -c 0 -i 5 -a 0 -x {19.73 7.74 -1 ------- null}
+ -t 0.0470694271135467 -s 19 -d 26 -p rtProtoDV -e 37 -c 0 -i 6 -a 0 -x {19.73 26.73 -1 ------- null}
- -t 0.0470694271135467 -s 19 -d 26 -p rtProtoDV -e 37 -c 0 -i 6 -a 0 -x {19.73 26.73 -1 ------- null}
h -t 0.0470694271135467 -s 19 -d 26 -p rtProtoDV -e 37 -c 0 -i 6 -a 0 -x {19.73 26.73 -1 ------- null}
+ -t 0.0470694271135467 -s 19 -d 27 -p rtProtoDV -e 37 -c 0 -i 7 -a 0 -x {19.73 27.73 -1 ------- null}
- -t 0.0470694271135467 -s 19 -d 27 -p rtProtoDV -e 37 -c 0 -i 7 -a 0 -x {19.73 27.73 -1 ------- null}
h -t 0.0470694271135467 -s 19 -d 27 -p rtProtoDV -e 37 -c 0 -i 7 -a 0 -x {19.73 27.73 -1 ------- null}
r -t 0.0470973871135467 -s 19 -d 6 -p rtProtoDV -e 37 -c 0 -i 4 -a 0 -x {19.73 6.73 -1 ------- null}
+ -t 0.0470973871135467 -s 6 -d 19 -p rtProtoDV -e 37 -c 0 -i 8 -a 0 -x {6.73 19.73 -1 ------- null}
- -t 0.0470973871135467 -s 6 -d 19 -p rtProtoDV -e 37 -c 0 -i 8 -a 0 -x {6.73 19.73 -1 ------- null}
h -t 0.0470973871135467 -s 6 -d 19 -p rtProtoDV -e 37 -c 0 -i 8 -a 0 -x {6.73 19.73 -1 ------- null}
r -t 0.0470973871135467 -s 19 -d 7 -p rtProtoDV -e 37 -c 0 -i 5 -a 0 -x {19.73 7.74 -1 ------- null}
+ -t 0.0470973871135467 -s 7 -d 19 -p rtProtoDV -e 37 -c 0 -i 9 -a 0 -x {7.74 19.73 -1 ------- null}
- -t 0.0470973871135467 -s 7 -d 19 -p rtProtoDV -e 37 -c 0 -i 9 -a 0 -x {7.74 19.73 -1 ------- null}
h -t 0.0470973871135467 -s 7 -d 19 -p rtProtoDV -e 37 -c 0 -i 9 -a 0 -x {7.74 19.73 -1 ------- null}
r -t 0.0470973871135467 -s 19 -d 26 -p rtProtoDV -e 37 -c 0 -i 6 -a 0 -x {19.73 26.73 -1 ------- null}
+ -t 0.0470973871135467 -s 26 -d 18 -p rtProtoDV -e 37 -c 0 -i 10 -a 0 -x {26.73 18.73 -1 ------- null}
- -t 0.0470973871135467 -s 26 -d 18 -p rtProtoDV -e 37 -c 0 -i 10 -a 0 -x {26.73 18.73 -1 ------- null}
h -t 0.0470973871135467 -s 26 -d 18 -p rtProtoDV -e 37 -c 0 -i 10 -a 0 -x {26.73 18.73 -1 ------- null}
+ -t 0.0470973871135467 -s 26 -d 19 -p rtProtoDV -e 37 -c 0 -i 11 -a 0 -x {26.73 19.73 -1 ------- null}
- -t 0.0470973871135467 -s 26 -d 19 -p rtProtoDV -e 37 -c 0 -i 11 -a 0 -x {26.73 19.73 -1 ------- null}
h -t 0.0470973871135467 -s 26 -d 19 -p rtProtoDV -e 37 -c 0 -i 11 -a 0 -x {26.73 19.73 -1 ------- null}
+ -t 0.0470973871135467 -s 26 -d 32 -p rtProtoDV -e 37 -c 0 -i 12 -a 0 -x {26.73 32.73 -1 ------- null}
- -t 0.0470973871135467 -s 26 -d 32 -p rtProtoDV -e 37 -c 0 -i 12 -a 0 -x {26.73 32.73 -1 ------- null}
h -t 0.0470973871135467 -s 26 -d 32 -p rtProtoDV -e 37 -c 0 -i 12 -a 0 -x {26.73 32.73 -1 ------- null}
+ -t 0.0470973871135467 -s 26 -d 33 -p rtProtoDV -e 37 -c 0 -i 13 -a 0 -x {26.73 33.73 -1 ------- null}
- -t 0.0470973871135467 -s 26 -d 33 -p rtProtoDV -e 37 -c 0 -i 13 -a 0 -x {26.73 33.73 -1 ------- null}
h -t 0.0470973871135467 -s 26 -d 33 -p rtProtoDV -e 37 -c 0 -i 13 -a 0 -x {26.73 33.73 -1 ------- null}
r -t 0.0470973871135467 -s 19 -d 27 -p rtProtoDV -e 37 -c 0 -i 7 -a 0 -x {19.73 27.73 -1 ------- null}
+ -t 0.0470973871135467 -s 27 -d 18 -p rtProtoDV -e 37 -c 0 -i 14 -a 0 -x {27.73 18.73 -1 ------- null}
- -t 0.0470973871135467 -s 27 -d 18 -p rtProtoDV -e 37 -c 0 -i 14 -a 0 -x {27.73 18.73 -1 ------- null}
h -t 0.0470973871135467 -s 27 -d 18 -p rtProtoDV -e 37 -c 0 -i 14 -a 0 -x {27.73 18.73 -1 ------- null}
+ -t 0.0470973871135467 -s 27 -d 19 -p rtProtoDV -e 37 -c 0 -i 15 -a 0 -x {27.73 19.73 -1 ------- null}
- -t 0.0470973871135467 -s 27 -d 19 -p rtProtoDV -e 37 -c 0 -i 15 -a 0 -x {27.73 19.73 -1 ------- null}
h -t 0.0470973871135467 -s 27 -d 19 -p rtProtoDV -e 37 -c 0 -i 15 -a 0 -x {27.73 19.73 -1 ------- null}
+ -t 0.0470973871135467 -s 27 -d 34 -p rtProtoDV -e 37 -c 0 -i 16 -a 0 -x {27.73 34.73 -1 ------- null}
- -t 0.0470973871135467 -s 27 -d 34 -p rtProtoDV -e 37 -c 0 -i 16 -a 0 -x {27.73 34.73 -1 ------- null}
h -t 0.0470973871135467 -s 27 -d 34 -p rtProtoDV -e 37 -c 0 -i 16 -a 0 -x {27.73 34.73 -1 ------- null}
+ -t 0.0470973871135467 -s 27 -d 35 -p rtProtoDV -e 37 -c 0 -i 17 -a 0 -x {27.73 35.73 -1 ------- null}
- -t 0.0470973871135467 -s 27 -d 35 -p rtProtoDV -e 37 -c 0 -i 17 -a 0 -x {27.73 35.73 -1 ------- null}
h -t 0.0470973871135467 -s 27 -d 35 -p rtProtoDV -e 37 -c 0 -i 17 -a 0 -x {27.73 35.73 -1 ------- null}
r -t 0.0471253471135467 -s 6 -d 19 -p rtProtoDV -e 37 -c 0 -i 8 -a 0 -x {6.73 19.73 -1 ------- null}
r -t 0.0471253471135467 -s 7 -d 19 -p rtProtoDV -e 37 -c 0 -i 9 -a 0 -x {7.74 19.73 -1 ------- null}
r -t 0.0471253471135467 -s 26 -d 18 -p rtProtoDV -e 37 -c 0 -i 10 -a 0 -x {26.73 18.73 -1 ------- null}
+ -t 0.0471253471135467 -s 18 -d 4 -p rtProtoDV -e 37 -c 0 -i 18 -a 0 -x {18.73 4.73 -1 ------- null}
- -t 0.0471253471135467 -s 18 -d 4 -p rtProtoDV -e 37 -c 0 -i 18 -a 0 -x {18.73 4.73 -1 ------- null}
h -t 0.0471253471135467 -s 18 -d 4 -p rtProtoDV -e 37 -c 0 -i 18 -a 0 -x {18.73 4.73 -1 ------- null}
+ -t 0.0471253471135467 -s 18 -d 5 -p rtProtoDV -e 37 -c 0 -i 19 -a 0 -x {18.73 5.74 -1 ------- null}
- -t 0.0471253471135467 -s 18 -d 5 -p rtProtoDV -e 37 -c 0 -i 19 -a 0 -x {18.73 5.74 -1 ------- null}
h -t 0.0471253471135467 -s 18 -d 5 -p rtProtoDV -e 37 -c 0 -i 19 -a 0 -x {18.73 5.74 -1 ------- null}
+ -t 0.0471253471135467 -s 18 -d 26 -p rtProtoDV -e 37 -c 0 -i 20 -a 0 -x {18.73 26.73 -1 ------- null}
- -t 0.0471253471135467 -s 18 -d 26 -p rtProtoDV -e 37 -c 0 -i 20 -a 0 -x {18.73 26.73 -1 ------- null}
h -t 0.0471253471135467 -s 18 -d 26 -p rtProtoDV -e 37 -c 0 -i 20 -a 0 -x {18.73 26.73 -1 ------- null}
+ -t 0.0471253471135467 -s 18 -d 27 -p rtProtoDV -e 37 -c 0 -i 21 -a 0 -x {18.73 27.73 -1 ------- null}
- -t 0.0471253471135467 -s 18 -d 27 -p rtProtoDV -e 37 -c 0 -i 21 -a 0 -x {18.73 27.73 -1 ------- null}
h -t 0.0471253471135467 -s 18 -d 27 -p rtProtoDV -e 37 -c 0 -i 21 -a 0 -x {18.73 27.73 -1 ------- null}
r -t 0.0471253471135467 -s 26 -d 19 -p rtProtoDV -e 37 -c 0 -i 11 -a 0 -x {26.73 19.73 -1 ------- null}
+ -t 0.0471253471135467 -s 19 -d 6 -p rtProtoDV -e 37 -c 0 -i 22 -a 0 -x {19.73 6.73 -1 ------- null}
- -t 0.0471253471135467 -s 19 -d 6 -p rtProtoDV -e 37 -c 0 -i 22 -a 0 -x {19.73 6.73 -1 ------- null}
h -t 0.0471253471135467 -s 19 -d 6 -p rtProtoDV -e 37 -c 0 -i 22 -a 0 -x {19.73 6.73 -1 ------- null}
+ -t 0.0471253471135467 -s 19 -d 7 -p rtProtoDV -e 37 -c 0 -i 23 -a 0 -x {19.73 7.74 -1 ------- null}
- -t 0.0471253471135467 -s 19 -d 7 -p rtProtoDV -e 37 -c 0 -i 23 -a 0 -x {19.73 7.74 -1 ------- null}
h -t 0.0471253471135467 -s 19 -d 7 -p rtProtoDV -e 37 -c 0 -i 23 -a 0 -x {19.73 7.74 -1 ------- null}
+ -t 0.0471253471135467 -s 19 -d 26 -p rtProtoDV -e 37 -c 0 -i 24 -a 0 -x {19.73 26.73 -1 ------- null}
- -t 0.0471253471135467 -s 19 -d 26 -p rtProtoDV -e 37 -c 0 -i 24 -a 0 -x {19.73 26.73 -1 ------- null}
h -t 0.0471253471135467 -s 19 -d 26 -p rtProtoDV -e 37 -c 0 -i 24 -a 0 -x {19.73 26.73 -1 ------- null}
+ -t 0.0471253471135467 -s 19 -d 27 -p rtProtoDV -e 37 -c 0 -i 25 -a 0 -x {19.73 27.73 -1 ------- null}
- -t 0.0471253471135467 -s 19 -d 27 -p rtProtoDV -e 37 -c 0 -i 25 -a 0 -x {19.73 27.73 -1 ------- null}
h -t 0.0471253471135467 -s 19 -d 27 -p rtProtoDV -e 37 -c 0 -i 25 -a 0 -x {19.73 27.73 -1 ------- null}
r -t 0.0471253471135467 -s 26 -d 32 -p rtProtoDV -e 37 -c 0 -i 12 -a 0 -x {26.73 32.73 -1 ------- null}
+ -t 0.0471253471135467 -s 32 -d 24 -p rtProtoDV -e 37 -c 0 -i 26 -a 0 -x {32.73 24.73 -1 ------- null}
- -t 0.0471253471135467 -s 32 -d 24 -p rtProtoDV -e 37 -c 0 -i 26 -a 0 -x {32.73 24.73 -1 ------- null}
h -t 0.0471253471135467 -s 32 -d 24 -p rtProtoDV -e 37 -c 0 -i 26 -a 0 -x {32.73 24.73 -1 ------- null}
+ -t 0.0471253471135467 -s 32 -d 26 -p rtProtoDV -e 37 -c 0 -i 27 -a 0 -x {32.73 26.73 -1 ------- null}
- -t 0.0471253471135467 -s 32 -d 26 -p rtProtoDV -e 37 -c 0 -i 27 -a 0 -x {32.73 26.73 -1 ------- null}
h -t 0.0471253471135467 -s 32 -d 26 -p rtProtoDV -e 37 -c 0 -i 27 -a 0 -x {32.73 26.73 -1 ------- null}
+ -t 0.0471253471135467 -s 32 -d 28 -p rtProtoDV -e 37 -c 0 -i 28 -a 0 -x {32.73 28.73 -1 ------- null}
- -t 0.0471253471135467 -s 32 -d 28 -p rtProtoDV -e 37 -c 0 -i 28 -a 0 -x {32.73 28.73 -1 ------- null}
h -t 0.0471253471135467 -s 32 -d 28 -p rtProtoDV -e 37 -c 0 -i 28 -a 0 -x {32.73 28.73 -1 ------- null}
+ -t 0.0471253471135467 -s 32 -d 30 -p rtProtoDV -e 37 -c 0 -i 29 -a 0 -x {32.73 30.73 -1 ------- null}
- -t 0.0471253471135467 -s 32 -d 30 -p rtProtoDV -e 37 -c 0 -i 29 -a 0 -x {32.73 30.73 -1 ------- null}
h -t 0.0471253471135467 -s 32 -d 30 -p rtProtoDV -e 37 -c 0 -i 29 -a 0 -x {32.73 30.73 -1 ------- null}
r -t 0.0471253471135467 -s 26 -d 33 -p rtProtoDV -e 37 -c 0 -i 13 -a 0 -x {26.73 33.73 -1 ------- null}
+ -t 0.0471253471135467 -s 33 -d 24 -p rtProtoDV -e 37 -c 0 -i 30 -a 0 -x {33.73 24.73 -1 ------- null}
- -t 0.0471253471135467 -s 33 -d 24 -p rtProtoDV -e 37 -c 0 -i 30 -a 0 -x {33.73 24.73 -1 ------- null}
h -t 0.0471253471135467 -s 33 -d 24 -p rtProtoDV -e 37 -c 0 -i 30 -a 0 -x {33.73 24.73 -1 ------- null}
+ -t 0.0471253471135467 -s 33 -d 26 -p rtProtoDV -e 37 -c 0 -i 31 -a 0 -x {33.73 26.73 -1 ------- null}
- -t 0.0471253471135467 -s 33 -d 26 -p rtProtoDV -e 37 -c 0 -i 31 -a 0 -x {33.73 26.73 -1 ------- null}
h -t 0.0471253471135467 -s 33 -d 26 -p rtProtoDV -e 37 -c 0 -i 31 -a 0 -x {33.73 26.73 -1 ------- null}
+ -t 0.0471253471135467 -s 33 -d 28 -p rtProtoDV -e 37 -c 0 -i 32 -a 0 -x {33.73 28.73 -1 ------- null}
- -t 0.0471253471135467 -s 33 -d 28 -p rtProtoDV -e 37 -c 0 -i 32 -a 0 -x {33.73 28.73 -1 ------- null}
h -t 0.0471253471135467 -s 33 -d 28 -p rtProtoDV -e 37 -c 0 -i 32 -a 0 -x {33.73 28.73 -1 ------- null}
+ -t 0.0471253471135467 -s 33 -d 30 -p rtProtoDV -e 37 -c 0 -i 33 -a 0 -x {33.73 30.73 -1 ------- null}
- -t 0.0471253471135467 -s 33 -d 30 -p rtProtoDV -e 37 -c 0 -i 33 -a 0 -x {33.73 30.73 -1 ------- null}
h -t 0.0471253471135467 -s 33 -d 30 -p rtProtoDV -e 37 -c 0 -i 33 -a 0 -x {33.73 30.73 -1 ------- null}
r -t 0.0471253471135467 -s 27 -d 18 -p rtProtoDV -e 37 -c 0 -i 14 -a 0 -x {27.73 18.73 -1 ------- null}
+ -t 0.0471253471135467 -s 18 -d 4 -p rtProtoDV -e 37 -c 0 -i 34 -a 0 -x {18.73 4.73 -1 ------- null}
+ -t 0.0471253471135467 -s 18 -d 5 -p rtProtoDV -e 37 -c 0 -i 35 -a 0 -x {18.73 5.74 -1 ------- null}
+ -t 0.0471253471135467 -s 18 -d 26 -p rtProtoDV -e 37 -c 0 -i 36 -a 0 -x {18.73 26.73 -1 ------- null}
+ -t 0.0471253471135467 -s 18 -d 27 -p rtProtoDV -e 37 -c 0 -i 37 -a 0 -x {18.73 27.73 -1 ------- null}
r -t 0.0471253471135467 -s 27 -d 19 -p rtProtoDV -e 37 -c 0 -i 15 -a 0 -x {27.73 19.73 -1 ------- null}
+ -t 0.0471253471135467 -s 19 -d 6 -p rtProtoDV -e 37 -c 0 -i 38 -a 0 -x {19.73 6.73 -1 ------- null}
+ -t 0.0471253471135467 -s 19 -d 7 -p rtProtoDV -e 37 -c 0 -i 39 -a 0 -x {19.73 7.74 -1 ------- null}
+ -t 0.0471253471135467 -s 19 -d 26 -p rtProtoDV -e 37 -c 0 -i 40 -a 0 -x {19.73 26.73 -1 ------- null}
+ -t 0.0471253471135467 -s 19 -d 27 -p rtProtoDV -e 37 -c 0 -i 41 -a 0 -x {19.73 27.73 -1 ------- null}
r -t 0.0471253471135467 -s 27 -d 34 -p rtProtoDV -e 37 -c 0 -i 16 -a 0 -x {27.73 34.73 -1 ------- null}
+ -t 0.0471253471135467 -s 34 -d 25 -p rtProtoDV -e 37 -c 0 -i 42 -a 0 -x {34.73 25.73 -1 ------- null}
- -t 0.0471253471135467 -s 34 -d 25 -p rtProtoDV -e 37 -c 0 -i 42 -a 0 -x {34.73 25.73 -1 ------- null}
h -t 0.0471253471135467 -s 34 -d 25 -p rtProtoDV -e 37 -c 0 -i 42 -a 0 -x {34.73 25.73 -1 ------- null}
+ -t 0.0471253471135467 -s 34 -d 27 -p rtProtoDV -e 37 -c 0 -i 43 -a 0 -x {34.73 27.73 -1 ------- null}
- -t 0.0471253471135467 -s 34 -d 27 -p rtProtoDV -e 37 -c 0 -i 43 -a 0 -x {34.73 27.73 -1 ------- null}
h -t 0.0471253471135467 -s 34 -d 27 -p rtProtoDV -e 37 -c 0 -i 43 -a 0 -x {34.73 27.73 -1 ------- null}
+ -t 0.0471253471135467 -s 34 -d 29 -p rtProtoDV -e 37 -c 0 -i 44 -a 0 -x {34.73 29.73 -1 ------- null}
- -t 0.0471253471135467 -s 34 -d 29 -p rtProtoDV -e 37 -c 0 -i 44 -a 0 -x {34.73 29.73 -1 ------- null}
h -t 0.0471253471135467 -s 34 -d 29 -p rtProtoDV -e 37 -c 0 -i 44 -a 0 -x {34.73 29.73 -1 ------- null}
+ -t 0.0471253471135467 -s 34 -d 31 -p rtProtoDV -e 37 -c 0 -i 45 -a 0 -x {34.73 31.73 -1 ------- null}
- -t 0.0471253471135467 -s 34 -d 31 -p rtProtoDV -e 37 -c 0 -i 45 -a 0 -x {34.73 31.73 -1 ------- null}
h -t 0.0471253471135467 -s 34 -d 31 -p rtProtoDV -e 37 -c 0 -i 45 -a 0 -x {34.73 31.73 -1 ------- null}
r -t 0.0471253471135467 -s 27 -d 35 -p rtProtoDV -e 37 -c 0 -i 17 -a 0 -x {27.73 35.73 -1 ------- null}
+ -t 0.0471253471135467 -s 35 -d 25 -p rtProtoDV -e 37 -c 0 -i 46 -a 0 -x {35.73 25.73 -1 ------- null}
- -t 0.0471253471135467 -s 35 -d 25 -p rtProtoDV -e 37 -c 0 -i 46 -a 0 -x {35.73 25.73 -1 ------- null}
h -t 0.0471253471135467 -s 35 -d 25 -p rtProtoDV -e 37 -c 0 -i 46 -a 0 -x {35.73 25.73 -1 ------- null}
+ -t 0.0471253471135467 -s 35 -d 27 -p rtProtoDV -e 37 -c 0 -i 47 -a 0 -x {35.73 27.73 -1 ------- null}
- -t 0.0471253471135467 -s 35 -d 27 -p rtProtoDV -e 37 -c 0 -i 47 -a 0 -x {35.73 27.73 -1 ------- null}
h -t 0.0471253471135467 -s 35 -d 27 -p rtProtoDV -e 37 -c 0 -i 47 -a 0 -x {35.73 27.73 -1 ------- null}
+ -t 0.0471253471135467 -s 35 -d 29 -p rtProtoDV -e 37 -c 0 -i 48 -a 0 -x {35.73 29.73 -1 ------- null}
- -t 0.0471253471135467 -s 35 -d 29 -p rtProtoDV -e 37 -c 0 -i 48 -a 0 -x {35.73 29.73 -1 ------- null}
h -t 0.0471253471135467 -s 35 -d 29 -p rtProtoDV -e 37 -c 0 -i 48 -a 0 -x {35.73 29.73 -1 ------- null}
+ -t 0.0471253471135467 -s 35 -d 31 -p rtProtoDV -e 37 -c 0 -i 49 -a 0 -x {35.73 31.73 -1 ------- null}
- -t 0.0471253471135467 -s 35 -d 31 -p rtProtoDV -e 37 -c 0 -i 49 -a 0 -x {35.73 31.73 -1 ------- null}
h -t 0.0471253471135467 -s 35 -d 31 -p rtProtoDV -e 37 -c 0 -i 49 -a 0 -x {35.73 31.73 -1 ------- null}
- -t 0.0471283071135467 -s 18 -d 4 -p rtProtoDV -e 37 -c 0 -i 34 -a 0 -x {18.73 4.73 -1 ------- null}
h -t 0.0471283071135467 -s 18 -d 4 -p rtProtoDV -e 37 -c 0 -i 34 -a 0 -x {18.73 4.73 -1 ------- null}
- -t 0.0471283071135467 -s 18 -d 5 -p rtProtoDV -e 37 -c 0 -i 35 -a 0 -x {18.73 5.74 -1 ------- null}
h -t 0.0471283071135467 -s 18 -d 5 -p rtProtoDV -e 37 -c 0 -i 35 -a 0 -x {18.73 5.74 -1 ------- null}
- -t 0.0471283071135467 -s 18 -d 26 -p rtProtoDV -e 37 -c 0 -i 36 -a 0 -x {18.73 26.73 -1 ------- null}
h -t 0.0471283071135467 -s 18 -d 26 -p rtProtoDV -e 37 -c 0 -i 36 -a 0 -x {18.73 26.73 -1 ------- null}
- -t 0.0471283071135467 -s 18 -d 27 -p rtProtoDV -e 37 -c 0 -i 37 -a 0 -x {18.73 27.73 -1 ------- null}
h -t 0.0471283071135467 -s 18 -d 27 -p rtProtoDV -e 37 -c 0 -i 37 -a 0 -x {18.73 27.73 -1 ------- null}
- -t 0.0471283071135467 -s 19 -d 6 -p rtProtoDV -e 37 -c 0 -i 38 -a 0 -x {19.73 6.73 -1 ------- null}
h -t 0.0471283071135467 -s 19 -d 6 -p rtProtoDV -e 37 -c 0 -i 38 -a 0 -x {19.73 6.73 -1 ------- null}
- -t 0.0471283071135467 -s 19 -d 7 -p rtProtoDV -e 37 -c 0 -i 39 -a 0 -x {19.73 7.74 -1 ------- null}
h -t 0.0471283071135467 -s 19 -d 7 -p rtProtoDV -e 37 -c 0 -i 39 -a 0 -x {19.73 7.74 -1 ------- null}
- -t 0.0471283071135467 -s 19 -d 26 -p rtProtoDV -e 37 -c 0 -i 40 -a 0 -x {19.73 26.73 -1 ------- null}
h -t 0.0471283071135467 -s 19 -d 26 -p rtProtoDV -e 37 -c 0 -i 40 -a 0 -x {19.73 26.73 -1 ------- null}
- -t 0.0471283071135467 -s 19 -d 27 -p rtProtoDV -e 37 -c 0 -i 41 -a 0 -x {19.73 27.73 -1 ------- null}
h -t 0.0471283071135467 -s 19 -d 27 -p rtProtoDV -e 37 -c 0 -i 41 -a 0 -x {19.73 27.73 -1 ------- null}
r -t 0.0471533071135467 -s 18 -d 4 -p rtProtoDV -e 37 -c 0 -i 18 -a 0 -x {18.73 4.73 -1 ------- null}
+ -t 0.0471533071135467 -s 4 -d 18 -p rtProtoDV -e 37 -c 0 -i 50 -a 0 -x {4.73 18.73 -1 ------- null}
- -t 0.0471533071135467 -s 4 -d 18 -p rtProtoDV -e 37 -c 0 -i 50 -a 0 -x {4.73 18.73 -1 ------- null}
h -t 0.0471533071135467 -s 4 -d 18 -p rtProtoDV -e 37 -c 0 -i 50 -a 0 -x {4.73 18.73 -1 ------- null}
r -t 0.0471533071135467 -s 18 -d 5 -p rtProtoDV -e 37 -c 0 -i 19 -a 0 -x {18.73 5.74 -1 ------- null}
+ -t 0.0471533071135467 -s 5 -d 18 -p rtProtoDV -e 37 -c 0 -i 51 -a 0 -x {5.74 18.73 -1 ------- null}
- -t 0.0471533071135467 -s 5 -d 18 -p rtProtoDV -e 37 -c 0 -i 51 -a 0 -x {5.74 18.73 -1 ------- null}
h -t 0.0471533071135467 -s 5 -d 18 -p rtProtoDV -e 37 -c 0 -i 51 -a 0 -x {5.74 18.73 -1 ------- null}
r -t 0.0471533071135467 -s 18 -d 26 -p rtProtoDV -e 37 -c 0 -i 20 -a 0 -x {18.73 26.73 -1 ------- null}
+ -t 0.0471533071135467 -s 26 -d 18 -p rtProtoDV -e 37 -c 0 -i 52 -a 0 -x {26.73 18.73 -1 ------- null}
- -t 0.0471533071135467 -s 26 -d 18 -p rtProtoDV -e 37 -c 0 -i 52 -a 0 -x {26.73 18.73 -1 ------- null}
h -t 0.0471533071135467 -s 26 -d 18 -p rtProtoDV -e 37 -c 0 -i 52 -a 0 -x {26.73 18.73 -1 ------- null}
+ -t 0.0471533071135467 -s 26 -d 19 -p rtProtoDV -e 37 -c 0 -i 53 -a 0 -x {26.73 19.73 -1 ------- null}
- -t 0.0471533071135467 -s 26 -d 19 -p rtProtoDV -e 37 -c 0 -i 53 -a 0 -x {26.73 19.73 -1 ------- null}
h -t 0.0471533071135467 -s 26 -d 19 -p rtProtoDV -e 37 -c 0 -i 53 -a 0 -x {26.73 19.73 -1 ------- null}
+ -t 0.0471533071135467 -s 26 -d 32 -p rtProtoDV -e 37 -c 0 -i 54 -a 0 -x {26.73 32.73 -1 ------- null}
- -t 0.0471533071135467 -s 26 -d 32 -p rtProtoDV -e 37 -c 0 -i 54 -a 0 -x {26.73 32.73 -1 ------- null}
h -t 0.0471533071135467 -s 26 -d 32 -p rtProtoDV -e 37 -c 0 -i 54 -a 0 -x {26.73 32.73 -1 ------- null}
+ -t 0.0471533071135467 -s 26 -d 33 -p rtProtoDV -e 37 -c 0 -i 55 -a 0 -x {26.73 33.73 -1 ------- null}
- -t 0.0471533071135467 -s 26 -d 33 -p rtProtoDV -e 37 -c 0 -i 55 -a 0 -x {26.73 33.73 -1 ------- null}
h -t 0.0471533071135467 -s 26 -d 33 -p rtProtoDV -e 37 -c 0 -i 55 -a 0 -x {26.73 33.73 -1 ------- null}
r -t 0.0471533071135467 -s 18 -d 27 -p rtProtoDV -e 37 -c 0 -i 21 -a 0 -x {18.73 27.73 -1 ------- null}
+ -t 0.0471533071135467 -s 27 -d 18 -p rtProtoDV -e 37 -c 0 -i 56 -a 0 -x {27.73 18.73 -1 ------- null}
- -t 0.0471533071135467 -s 27 -d 18 -p rtProtoDV -e 37 -c 0 -i 56 -a 0 -x {27.73 18.73 -1 ------- null}
h -t 0.0471533071135467 -s 27 -d 18 -p rtProtoDV -e 37 -c 0 -i 56 -a 0 -x {27.73 18.73 -1 ------- null}
+ -t 0.0471533071135467 -s 27 -d 19 -p rtProtoDV -e 37 -c 0 -i 57 -a 0 -x {27.73 19.73 -1 ------- null}
- -t 0.0471533071135467 -s 27 -d 19 -p rtProtoDV -e 37 -c 0 -i 57 -a 0 -x {27.73 19.73 -1 ------- null}
h -t 0.0471533071135467 -s 27 -d 19 -p rtProtoDV -e 37 -c 0 -i 57 -a 0 -x {27.73 19.73 -1 ------- null}
+ -t 0.0471533071135467 -s 27 -d 34 -p rtProtoDV -e 37 -c 0 -i 58 -a 0 -x {27.73 34.73 -1 ------- null}
- -t 0.0471533071135467 -s 27 -d 34 -p rtProtoDV -e 37 -c 0 -i 58 -a 0 -x {27.73 34.73 -1 ------- null}
h -t 0.0471533071135467 -s 27 -d 34 -p rtProtoDV -e 37 -c 0 -i 58 -a 0 -x {27.73 34.73 -1 ------- null}
+ -t 0.0471533071135467 -s 27 -d 35 -p rtProtoDV -e 37 -c 0 -i 59 -a 0 -x {27.73 35.73 -1 ------- null}
- -t 0.0471533071135467 -s 27 -d 35 -p rtProtoDV -e 37 -c 0 -i 59 -a 0 -x {27.73 35.73 -1 ------- null}
h -t 0.0471533071135467 -s 27 -d 35 -p rtProtoDV -e 37 -c 0 -i 59 -a 0 -x {27.73 35.73 -1 ------- null}
r -t 0.0471533071135467 -s 19 -d 6 -p rtProtoDV -e 37 -c 0 -i 22 -a 0 -x {19.73 6.73 -1 ------- null}
+ -t 0.0471533071135467 -s 6 -d 19 -p rtProtoDV -e 37 -c 0 -i 60 -a 0 -x {6.73 19.73 -1 ------- null}
- -t 0.0471533071135467 -s 6 -d 19 -p rtProtoDV -e 37 -c 0 -i 60 -a 0 -x {6.73 19.73 -1 ------- null}
h -t 0.0471533071135467 -s 6 -d 19 -p rtProtoDV -e 37 -c 0 -i 60 -a 0 -x {6.73 19.73 -1 ------- null}
r -t 0.0471533071135467 -s 19 -d 7 -p rtProtoDV -e 37 -c 0 -i 23 -a 0 -x {19.73 7.74 -1 ------- null}
+ -t 0.0471533071135467 -s 7 -d 19 -p rtProtoDV -e 37 -c 0 -i 61 -a 0 -x {7.74 19.73 -1 ------- null}
- -t 0.0471533071135467 -s 7 -d 19 -p rtProtoDV -e 37 -c 0 -i 61 -a 0 -x {7.74 19.73 -1 ------- null}
h -t 0.0471533071135467 -s 7 -d 19 -p rtProtoDV -e 37 -c 0 -i 61 -a 0 -x {7.74 19.73 -1 ------- null}
r -t 0.0471533071135467 -s 19 -d 26 -p rtProtoDV -e 37 -c 0 -i 24 -a 0 -x {19.73 26.73 -1 ------- null}
r -t 0.0471533071135467 -s 19 -d 27 -p rtProtoDV -e 37 -c 0 -i 25 -a 0 -x {19.73 27.73 -1 ------- null}
+ -t 0.0471533071135467 -s 27 -d 18 -p rtProtoDV -e 37 -c 0 -i 62 -a 0 -x {27.73 18.73 -1 ------- null}
+ -t 0.0471533071135467 -s 27 -d 19 -p rtProtoDV -e 37 -c 0 -i 63 -a 0 -x {27.73 19.73 -1 ------- null}
+ -t 0.0471533071135467 -s 27 -d 34 -p rtProtoDV -e 37 -c 0 -i 64 -a 0 -x {27.73 34.73 -1 ------- null}
+ -t 0.0471533071135467 -s 27 -d 35 -p rtProtoDV -e 37 -c 0 -i 65 -a 0 -x {27.73 35.73 -1 ------- null}
r -t 0.0471533071135467 -s 32 -d 24 -p rtProtoDV -e 37 -c 0 -i 26 -a 0 -x {32.73 24.73 -1 ------- null}
+ -t 0.0471533071135467 -s 24 -d 16 -p rtProtoDV -e 37 -c 0 -i 66 -a 0 -x {24.73 16.73 -1 ------- null}
- -t 0.0471533071135467 -s 24 -d 16 -p rtProtoDV -e 37 -c 0 -i 66 -a 0 -x {24.73 16.73 -1 ------- null}
h -t 0.0471533071135467 -s 24 -d 16 -p rtProtoDV -e 37 -c 0 -i 66 -a 0 -x {24.73 16.73 -1 ------- null}
+ -t 0.0471533071135467 -s 24 -d 17 -p rtProtoDV -e 37 -c 0 -i 67 -a 0 -x {24.73 17.73 -1 ------- null}
- -t 0.0471533071135467 -s 24 -d 17 -p rtProtoDV -e 37 -c 0 -i 67 -a 0 -x {24.73 17.73 -1 ------- null}
h -t 0.0471533071135467 -s 24 -d 17 -p rtProtoDV -e 37 -c 0 -i 67 -a 0 -x {24.73 17.73 -1 ------- null}
+ -t 0.0471533071135467 -s 24 -d 32 -p rtProtoDV -e 37 -c 0 -i 68 -a 0 -x {24.73 32.73 -1 ------- null}
- -t 0.0471533071135467 -s 24 -d 32 -p rtProtoDV -e 37 -c 0 -i 68 -a 0 -x {24.73 32.73 -1 ------- null}
h -t 0.0471533071135467 -s 24 -d 32 -p rtProtoDV -e 37 -c 0 -i 68 -a 0 -x {24.73 32.73 -1 ------- null}
+ -t 0.0471533071135467 -s 24 -d 33 -p rtProtoDV -e 37 -c 0 -i 69 -a 0 -x {24.73 33.73 -1 ------- null}
- -t 0.0471533071135467 -s 24 -d 33 -p rtProtoDV -e 37 -c 0 -i 69 -a 0 -x {24.73 33.73 -1 ------- null}
h -t 0.0471533071135467 -s 24 -d 33 -p rtProtoDV -e 37 -c 0 -i 69 -a 0 -x {24.73 33.73 -1 ------- null}
r -t 0.0471533071135467 -s 32 -d 26 -p rtProtoDV -e 37 -c 0 -i 27 -a 0 -x {32.73 26.73 -1 ------- null}
+ -t 0.0471533071135467 -s 26 -d 18 -p rtProtoDV -e 37 -c 0 -i 70 -a 0 -x {26.73 18.73 -1 ------- null}
+ -t 0.0471533071135467 -s 26 -d 19 -p rtProtoDV -e 37 -c 0 -i 71 -a 0 -x {26.73 19.73 -1 ------- null}
+ -t 0.0471533071135467 -s 26 -d 32 -p rtProtoDV -e 37 -c 0 -i 72 -a 0 -x {26.73 32.73 -1 ------- null}
+ -t 0.0471533071135467 -s 26 -d 33 -p rtProtoDV -e 37 -c 0 -i 73 -a 0 -x {26.73 33.73 -1 ------- null}
r -t 0.0471533071135467 -s 32 -d 28 -p rtProtoDV -e 37 -c 0 -i 28 -a 0 -x {32.73 28.73 -1 ------- null}
+ -t 0.0471533071135467 -s 28 -d 20 -p rtProtoDV -e 37 -c 0 -i 74 -a 0 -x {28.73 20.73 -1 ------- null}