+ 0 0 2 tcp 40 ------- 1 0.0 3.0 0 0 0 0x0 0 0
- 0 0 2 tcp 40 ------- 1 0.0 3.0 0 0 0 0x0 0 0
r 4e-05 0 2 tcp 40 ------- 1 0.0 3.0 0 0 0 0x0 0 0
+ 4e-05 2 3 tcp 40 ------- 1 0.0 3.0 0 0 0 0x0 0 0
- 4e-05 2 3 tcp 40 ------- 1 0.0 3.0 0 0 0 0x0 0 0
r 0.10044 2 3 tcp 40 ------- 1 0.0 3.0 0 0 0 0x0 0 0
+ 0.10044 3 2 ack 40 ------- 1 3.0 0.0 0 1 0 0x0 0 0
- 0.10044 3 2 ack 40 ------- 1 3.0 0.0 0 1 0 0x0 0 0
r 0.20084 3 2 ack 40 ------- 1 3.0 0.0 0 1 0 0x0 0 0
+ 0.20084 2 0 ack 40 ------- 1 3.0 0.0 0 1 0 0x0 0 0
- 0.20084 2 0 ack 40 ------- 1 3.0 0.0 0 1 0 0x0 0 0
r 0.20088 2 0 ack 40 ------- 1 3.0 0.0 0 1 0 0x0 0 0
+ 0.20088 0 2 tcp 1040 ------- 1 0.0 3.0 1 2 0 0x0 0 0
- 0.20088 0 2 tcp 1040 ------- 1 0.0 3.0 1 2 0 0x0 0 0
+ 0.20088 0 2 tcp 1040 ------- 1 0.0 3.0 2 3 0 0x0 0 0
r 0.20192 0 2 tcp 1040 ------- 1 0.0 3.0 1 2 0 0x0 0 0
+ 0.20192 2 3 tcp 1040 ------- 1 0.0 3.0 1 2 0 0x0 0 0
- 0.20192 2 3 tcp 1040 ------- 1 0.0 3.0 1 2 0 0x0 0 0
- 0.20192 0 2 tcp 1040 ------- 1 0.0 3.0 2 3 0 0x0 0 0
r 0.20296 0 2 tcp 1040 ------- 1 0.0 3.0 2 3 0 0x0 0 0
+ 0.20296 2 3 tcp 1040 ------- 1 0.0 3.0 2 3 0 0x0 0 0
- 0.21232 2 3 tcp 1040 ------- 1 0.0 3.0 2 3 0 0x0 0 0
r 0.31232 2 3 tcp 1040 ------- 1 0.0 3.0 1 2 0 0x0 0 0
+ 0.31232 3 2 ack 40 ------- 1 3.0 0.0 1 4 0 0x0 0 0
- 0.31232 3 2 ack 40 ------- 1 3.0 0.0 1 4 0 0x0 0 0
r 0.32272 2 3 tcp 1040 ------- 1 0.0 3.0 2 3 0 0x0 0 0
+ 0.32272 3 2 ack 40 ------- 1 3.0 0.0 2 5 0 0x0 0 0
- 0.32272 3 2 ack 40 ------- 1 3.0 0.0 2 5 0 0x0 0 0
r 0.41272 3 2 ack 40 ------- 1 3.0 0.0 1 4 0 0x0 0 0
+ 0.41272 2 0 ack 40 ------- 1 3.0 0.0 1 4 0 0x0 0 0
- 0.41272 2 0 ack 40 ------- 1 3.0 0.0 1 4 0 0x0 0 0
r 0.41276 2 0 ack 40 ------- 1 3.0 0.0 1 4 0 0x0 0 0
+ 0.41276 0 2 tcp 1040 ------- 1 0.0 3.0 3 6 0 0x0 0 0
- 0.41276 0 2 tcp 1040 ------- 1 0.0 3.0 3 6 0 0x0 0 0
+ 0.41276 0 2 tcp 1040 ------- 1 0.0 3.0 4 7 0 0x0 0 0
r 0.4138 0 2 tcp 1040 ------- 1 0.0 3.0 3 6 0 0x0 0 0
d 0.4138 2 3 tcp 1040 ------- 1 0.0 3.0 3 6 0 0x0 0 0
- 0.4138 0 2 tcp 1040 ------- 1 0.0 3.0 4 7 0 0x0 0 0
r 0.41484 0 2 tcp 1040 ------- 1 0.0 3.0 4 7 0 0x0 0 0
+ 0.41484 2 3 tcp 1040 ------- 1 0.0 3.0 4 7 0 0x0 0 0
- 0.41484 2 3 tcp 1040 ------- 1 0.0 3.0 4 7 0 0x0 0 0
r 0.42312 3 2 ack 40 ------- 1 3.0 0.0 2 5 0 0x0 0 0
+ 0.42312 2 0 ack 40 ------- 1 3.0 0.0 2 5 0 0x0 0 0
- 0.42312 2 0 ack 40 ------- 1 3.0 0.0 2 5 0 0x0 0 0
r 0.42316 2 0 ack 40 ------- 1 3.0 0.0 2 5 0 0x0 0 0
+ 0.42316 0 2 tcp 1040 ------- 1 0.0 3.0 5 8 0 0x0 0 0
- 0.42316 0 2 tcp 1040 ------- 1 0.0 3.0 5 8 0 0x0 0 0
+ 0.42316 0 2 tcp 1040 ------- 1 0.0 3.0 6 9 0 0x0 0 0
r 0.4242 0 2 tcp 1040 ------- 1 0.0 3.0 5 8 0 0x0 0 0
+ 0.4242 2 3 tcp 1040 ------- 1 0.0 3.0 5 8 0 0x0 0 0
- 0.4242 0 2 tcp 1040 ------- 1 0.0 3.0 6 9 0 0x0 0 0
r 0.42524 0 2 tcp 1040 ------- 1 0.0 3.0 6 9 0 0x0 0 0
+ 0.42524 2 3 tcp 1040 ------- 1 0.0 3.0 6 9 0 0x0 0 0
- 0.42524 2 3 tcp 1040 ------- 1 0.0 3.0 5 8 0 0x0 0 0
- 0.43564 2 3 tcp 1040 ------- 1 0.0 3.0 6 9 0 0x0 0 0
r 0.52524 2 3 tcp 1040 ------- 1 0.0 3.0 4 7 0 0x0 0 0
+ 0.52524 3 2 ack 40 ------- 1 3.0 0.0 2 10 0 0x0 0 0
- 0.52524 3 2 ack 40 ------- 1 3.0 0.0 2 10 0 0x0 0 0
r 0.53564 2 3 tcp 1040 ------- 1 0.0 3.0 5 8 0 0x0 0 0
+ 0.53564 3 2 ack 40 ------- 1 3.0 0.0 2 11 0 0x0 0 0
- 0.53564 3 2 ack 40 ------- 1 3.0 0.0 2 11 0 0x0 0 0
r 0.54604 2 3 tcp 1040 ------- 1 0.0 3.0 6 9 0 0x0 0 0
+ 0.54604 3 2 ack 40 ------- 1 3.0 0.0 2 12 0 0x0 0 0
- 0.54604 3 2 ack 40 ------- 1 3.0 0.0 2 12 0 0x0 0 0
r 0.62564 3 2 ack 40 ------- 1 3.0 0.0 2 10 0 0x0 0 0
+ 0.62564 2 0 ack 40 ------- 1 3.0 0.0 2 10 0 0x0 0 0
- 0.62564 2 0 ack 40 ------- 1 3.0 0.0 2 10 0 0x0 0 0
r 0.62568 2 0 ack 40 ------- 1 3.0 0.0 2 10 0 0x0 0 0
r 0.63604 3 2 ack 40 ------- 1 3.0 0.0 2 11 0 0x0 0 0
+ 0.63604 2 0 ack 40 ------- 1 3.0 0.0 2 11 0 0x0 0 0
- 0.63604 2 0 ack 40 ------- 1 3.0 0.0 2 11 0 0x0 0 0
r 0.63608 2 0 ack 40 ------- 1 3.0 0.0 2 11 0 0x0 0 0
r 0.64644 3 2 ack 40 ------- 1 3.0 0.0 2 12 0 0x0 0 0
+ 0.64644 2 0 ack 40 ------- 1 3.0 0.0 2 12 0 0x0 0 0
- 0.64644 2 0 ack 40 ------- 1 3.0 0.0 2 12 0 0x0 0 0
r 0.64648 2 0 ack 40 ------- 1 3.0 0.0 2 12 0 0x0 0 0
+ 1.42316 0 2 tcp 1040 ---A--- 1 0.0 3.0 3 13 0 0x0 0 0
- 1.42316 0 2 tcp 1040 ---A--- 1 0.0 3.0 3 13 0 0x0 0 0
r 1.4242 0 2 tcp 1040 ---A--- 1 0.0 3.0 3 13 0 0x0 0 0
+ 1.4242 2 3 tcp 1040 ---A--- 1 0.0 3.0 3 13 0 0x0 0 0
- 1.4242 2 3 tcp 1040 ---A--- 1 0.0 3.0 3 13 0 0x0 0 0
r 1.5346 2 3 tcp 1040 ---A--- 1 0.0 3.0 3 13 0 0x0 0 0
+ 1.5346 3 2 ack 40 ------- 1 3.0 0.0 6 14 0 0x0 0 0
- 1.5346 3 2 ack 40 ------- 1 3.0 0.0 6 14 0 0x0 0 0
r 1.635 3 2 ack 40 ------- 1 3.0 0.0 6 14 0 0x0 0 0
+ 1.635 2 0 ack 40 ------- 1 3.0 0.0 6 14 0 0x0 0 0
- 1.635 2 0 ack 40 ------- 1 3.0 0.0 6 14 0 0x0 0 0
r 1.63504 2 0 ack 40 ------- 1 3.0 0.0 6 14 0 0x0 0 0
+ 1.63504 0 2 tcp 1040 ------- 1 0.0 3.0 7 15 0 0x0 0 0
- 1.63504 0 2 tcp 1040 ------- 1 0.0 3.0 7 15 0 0x0 0 0
+ 1.63504 0 2 tcp 1040 ------- 1 0.0 3.0 8 16 0 0x0 0 0
r 1.63608 0 2 tcp 1040 ------- 1 0.0 3.0 7 15 0 0x0 0 0
+ 1.63608 2 3 tcp 1040 ------- 1 0.0 3.0 7 15 0 0x0 0 0
- 1.63608 2 3 tcp 1040 ------- 1 0.0 3.0 7 15 0 0x0 0 0
- 1.63608 0 2 tcp 1040 ------- 1 0.0 3.0 8 16 0 0x0 0 0
r 1.63712 0 2 tcp 1040 ------- 1 0.0 3.0 8 16 0 0x0 0 0
+ 1.63712 2 3 tcp 1040 ------- 1 0.0 3.0 8 16 0 0x0 0 0
- 1.64648 2 3 tcp 1040 ------- 1 0.0 3.0 8 16 0 0x0 0 0
r 1.74648 2 3 tcp 1040 ------- 1 0.0 3.0 7 15 0 0x0 0 0
+ 1.74648 3 2 ack 40 ------- 1 3.0 0.0 7 17 0 0x0 0 0
- 1.74648 3 2 ack 40 ------- 1 3.0 0.0 7 17 0 0x0 0 0
r 1.75688 2 3 tcp 1040 ------- 1 0.0 3.0 8 16 0 0x0 0 0
+ 1.75688 3 2 ack 40 ------- 1 3.0 0.0 8 18 0 0x0 0 0
- 1.75688 3 2 ack 40 ------- 1 3.0 0.0 8 18 0 0x0 0 0
r 1.84688 3 2 ack 40 ------- 1 3.0 0.0 7 17 0 0x0 0 0
+ 1.84688 2 0 ack 40 ------- 1 3.0 0.0 7 17 0 0x0 0 0
- 1.84688 2 0 ack 40 ------- 1 3.0 0.0 7 17 0 0x0 0 0
r 1.84692 2 0 ack 40 ------- 1 3.0 0.0 7 17 0 0x0 0 0
+ 1.84692 0 2 tcp 1040 ------- 1 0.0 3.0 9 19 0 0x0 0 0
- 1.84692 0 2 tcp 1040 ------- 1 0.0 3.0 9 19 0 0x0 0 0
r 1.84796 0 2 tcp 1040 ------- 1 0.0 3.0 9 19 0 0x0 0 0
+ 1.84796 2 3 tcp 1040 ------- 1 0.0 3.0 9 19 0 0x0 0 0
- 1.84796 2 3 tcp 1040 ------- 1 0.0 3.0 9 19 0 0x0 0 0
r 1.85728 3 2 ack 40 ------- 1 3.0 0.0 8 18 0 0x0 0 0
+ 1.85728 2 0 ack 40 ------- 1 3.0 0.0 8 18 0 0x0 0 0
- 1.85728 2 0 ack 40 ------- 1 3.0 0.0 8 18 0 0x0 0 0
r 1.85732 2 0 ack 40 ------- 1 3.0 0.0 8 18 0 0x0 0 0
+ 1.85732 0 2 tcp 1040 ------- 1 0.0 3.0 10 20 0 0x0 0 0
- 1.85732 0 2 tcp 1040 ------- 1 0.0 3.0 10 20 0 0x0 0 0
r 1.85836 0 2 tcp 1040 ------- 1 0.0 3.0 10 20 0 0x0 0 0
+ 1.85836 2 3 tcp 1040 ------- 1 0.0 3.0 10 20 0 0x0 0 0
- 1.85836 2 3 tcp 1040 ------- 1 0.0 3.0 10 20 0 0x0 0 0
r 1.95836 2 3 tcp 1040 ------- 1 0.0 3.0 9 19 0 0x0 0 0
+ 1.95836 3 2 ack 40 ------- 1 3.0 0.0 9 21 0 0x0 0 0
- 1.95836 3 2 ack 40 ------- 1 3.0 0.0 9 21 0 0x0 0 0
r 1.96876 2 3 tcp 1040 ------- 1 0.0 3.0 10 20 0 0x0 0 0
+ 1.96876 3 2 ack 40 ------- 1 3.0 0.0 10 22 0 0x0 0 0
- 1.96876 3 2 ack 40 ------- 1 3.0 0.0 10 22 0 0x0 0 0
